+ 0.1 4 0 cbr 1000 ------- 2 4.0 7.0 0 0
- 0.1 4 0 cbr 1000 ------- 2 4.0 7.0 0 0
+ 0.1 4 0 cbr 1000 ------- 2 4.0 7.0 1 1
- 0.105333 4 0 cbr 1000 ------- 2 4.0 7.0 1 1
r 0.115333 4 0 cbr 1000 ------- 2 4.0 7.0 0 0
+ 0.115333 0 1 cbr 1000 ------- 2 4.0 7.0 0 0
- 0.115333 0 1 cbr 1000 ------- 2 4.0 7.0 0 0
+ 0.116 4 0 cbr 1000 ------- 2 4.0 7.0 2 2
- 0.116 4 0 cbr 1000 ------- 2 4.0 7.0 2 2
+ 0.116 4 0 cbr 1000 ------- 2 4.0 7.0 3 3
r 0.120667 4 0 cbr 1000 ------- 2 4.0 7.0 1 1
+ 0.120667 0 1 cbr 1000 ------- 2 4.0 7.0 1 1
- 0.120667 0 1 cbr 1000 ------- 2 4.0 7.0 1 1
- 0.121333 4 0 cbr 1000 ------- 2 4.0 7.0 3 3
r 0.131333 4 0 cbr 1000 ------- 2 4.0 7.0 2 2
+ 0.131333 0 1 cbr 1000 ------- 2 4.0 7.0 2 2
- 0.131333 0 1 cbr 1000 ------- 2 4.0 7.0 2 2
+ 0.132 4 0 cbr 1000 ------- 2 4.0 7.0 4 4
- 0.132 4 0 cbr 1000 ------- 2 4.0 7.0 4 4
+ 0.132 4 0 cbr 1000 ------- 2 4.0 7.0 5 5
r 0.136667 4 0 cbr 1000 ------- 2 4.0 7.0 3 3
+ 0.136667 0 1 cbr 1000 ------- 2 4.0 7.0 3 3
- 0.136667 0 1 cbr 1000 ------- 2 4.0 7.0 3 3
- 0.137333 4 0 cbr 1000 ------- 2 4.0 7.0 5 5
r 0.139333 0 1 cbr 1000 ------- 2 4.0 7.0 0 0
+ 0.139333 1 5 cbr 1000 ------- 2 4.0 7.0 0 0
- 0.139333 1 5 cbr 1000 ------- 2 4.0 7.0 0 0
r 0.144667 0 1 cbr 1000 ------- 2 4.0 7.0 1 1
+ 0.144667 1 5 cbr 1000 ------- 2 4.0 7.0 1 1
- 0.144667 1 5 cbr 1000 ------- 2 4.0 7.0 1 1
r 0.147333 4 0 cbr 1000 ------- 2 4.0 7.0 4 4
+ 0.147333 0 1 cbr 1000 ------- 2 4.0 7.0 4 4
- 0.147333 0 1 cbr 1000 ------- 2 4.0 7.0 4 4
+ 0.148 4 0 cbr 1000 ------- 2 4.0 7.0 6 6
- 0.148 4 0 cbr 1000 ------- 2 4.0 7.0 6 6
+ 0.148 4 0 cbr 1000 ------- 2 4.0 7.0 7 7
r 0.152667 4 0 cbr 1000 ------- 2 4.0 7.0 5 5
+ 0.152667 0 1 cbr 1000 ------- 2 4.0 7.0 5 5
- 0.152667 0 1 cbr 1000 ------- 2 4.0 7.0 5 5
- 0.153333 4 0 cbr 1000 ------- 2 4.0 7.0 7 7
r 0.154667 1 5 cbr 1000 ------- 2 4.0 7.0 0 0
+ 0.154667 5 7 cbr 1000 ------- 2 4.0 7.0 0 0
- 0.154667 5 7 cbr 1000 ------- 2 4.0 7.0 0 0
r 0.155333 0 1 cbr 1000 ------- 2 4.0 7.0 2 2
+ 0.155333 1 5 cbr 1000 ------- 2 4.0 7.0 2 2
- 0.155333 1 5 cbr 1000 ------- 2 4.0 7.0 2 2
r 0.16 1 5 cbr 1000 ------- 2 4.0 7.0 1 1
+ 0.16 5 7 cbr 1000 ------- 2 4.0 7.0 1 1
- 0.16 5 7 cbr 1000 ------- 2 4.0 7.0 1 1
r 0.160667 0 1 cbr 1000 ------- 2 4.0 7.0 3 3
+ 0.160667 1 5 cbr 1000 ------- 2 4.0 7.0 3 3
- 0.160667 1 5 cbr 1000 ------- 2 4.0 7.0 3 3
r 0.163333 4 0 cbr 1000 ------- 2 4.0 7.0 6 6
+ 0.163333 0 1 cbr 1000 ------- 2 4.0 7.0 6 6
- 0.163333 0 1 cbr 1000 ------- 2 4.0 7.0 6 6
+ 0.164 4 0 cbr 1000 ------- 2 4.0 7.0 8 8
- 0.164 4 0 cbr 1000 ------- 2 4.0 7.0 8 8
+ 0.164 4 0 cbr 1000 ------- 2 4.0 7.0 9 9
r 0.168667 4 0 cbr 1000 ------- 2 4.0 7.0 7 7
+ 0.168667 0 1 cbr 1000 ------- 2 4.0 7.0 7 7
- 0.168667 0 1 cbr 1000 ------- 2 4.0 7.0 7 7
- 0.169333 4 0 cbr 1000 ------- 2 4.0 7.0 9 9
r 0.17 5 7 cbr 1000 ------- 2 4.0 7.0 0 0
r 0.170667 1 5 cbr 1000 ------- 2 4.0 7.0 2 2
+ 0.170667 5 7 cbr 1000 ------- 2 4.0 7.0 2 2
- 0.170667 5 7 cbr 1000 ------- 2 4.0 7.0 2 2
r 0.171333 0 1 cbr 1000 ------- 2 4.0 7.0 4 4
+ 0.171333 1 5 cbr 1000 ------- 2 4.0 7.0 4 4
- 0.171333 1 5 cbr 1000 ------- 2 4.0 7.0 4 4
r 0.175333 5 7 cbr 1000 ------- 2 4.0 7.0 1 1
r 0.176 1 5 cbr 1000 ------- 2 4.0 7.0 3 3
+ 0.176 5 7 cbr 1000 ------- 2 4.0 7.0 3 3
- 0.176 5 7 cbr 1000 ------- 2 4.0 7.0 3 3
r 0.176667 0 1 cbr 1000 ------- 2 4.0 7.0 5 5
+ 0.176667 1 5 cbr 1000 ------- 2 4.0 7.0 5 5
- 0.176667 1 5 cbr 1000 ------- 2 4.0 7.0 5 5
r 0.179333 4 0 cbr 1000 ------- 2 4.0 7.0 8 8
+ 0.179333 0 1 cbr 1000 ------- 2 4.0 7.0 8 8
- 0.179333 0 1 cbr 1000 ------- 2 4.0 7.0 8 8
+ 0.18 4 0 cbr 1000 ------- 2 4.0 7.0 10 10
- 0.18 4 0 cbr 1000 ------- 2 4.0 7.0 10 10
+ 0.18 4 0 cbr 1000 ------- 2 4.0 7.0 11 11
r 0.184667 4 0 cbr 1000 ------- 2 4.0 7.0 9 9
+ 0.184667 0 1 cbr 1000 ------- 2 4.0 7.0 9 9
- 0.184667 0 1 cbr 1000 ------- 2 4.0 7.0 9 9
- 0.185333 4 0 cbr 1000 ------- 2 4.0 7.0 11 11
r 0.186 5 7 cbr 1000 ------- 2 4.0 7.0 2 2
r 0.186667 1 5 cbr 1000 ------- 2 4.0 7.0 4 4
+ 0.186667 5 7 cbr 1000 ------- 2 4.0 7.0 4 4
- 0.186667 5 7 cbr 1000 ------- 2 4.0 7.0 4 4
r 0.187333 0 1 cbr 1000 ------- 2 4.0 7.0 6 6
+ 0.187333 1 5 cbr 1000 ------- 2 4.0 7.0 6 6
- 0.187333 1 5 cbr 1000 ------- 2 4.0 7.0 6 6
r 0.191333 5 7 cbr 1000 ------- 2 4.0 7.0 3 3
r 0.192 1 5 cbr 1000 ------- 2 4.0 7.0 5 5
+ 0.192 5 7 cbr 1000 ------- 2 4.0 7.0 5 5
- 0.192 5 7 cbr 1000 ------- 2 4.0 7.0 5 5
r 0.192667 0 1 cbr 1000 ------- 2 4.0 7.0 7 7
+ 0.192667 1 5 cbr 1000 ------- 2 4.0 7.0 7 7
- 0.192667 1 5 cbr 1000 ------- 2 4.0 7.0 7 7
r 0.195333 4 0 cbr 1000 ------- 2 4.0 7.0 10 10
+ 0.195333 0 1 cbr 1000 ------- 2 4.0 7.0 10 10
- 0.195333 0 1 cbr 1000 ------- 2 4.0 7.0 10 10
+ 0.196 4 0 cbr 1000 ------- 2 4.0 7.0 12 12
- 0.196 4 0 cbr 1000 ------- 2 4.0 7.0 12 12
+ 0.196 4 0 cbr 1000 ------- 2 4.0 7.0 13 13
r 0.200667 4 0 cbr 1000 ------- 2 4.0 7.0 11 11
+ 0.200667 0 1 cbr 1000 ------- 2 4.0 7.0 11 11
- 0.200667 0 1 cbr 1000 ------- 2 4.0 7.0 11 11
- 0.201333 4 0 cbr 1000 ------- 2 4.0 7.0 13 13
r 0.202 5 7 cbr 1000 ------- 2 4.0 7.0 4 4
r 0.202667 1 5 cbr 1000 ------- 2 4.0 7.0 6 6
+ 0.202667 5 7 cbr 1000 ------- 2 4.0 7.0 6 6
- 0.202667 5 7 cbr 1000 ------- 2 4.0 7.0 6 6
r 0.203333 0 1 cbr 1000 ------- 2 4.0 7.0 8 8
+ 0.203333 1 5 cbr 1000 ------- 2 4.0 7.0 8 8
- 0.203333 1 5 cbr 1000 ------- 2 4.0 7.0 8 8
r 0.207333 5 7 cbr 1000 ------- 2 4.0 7.0 5 5
r 0.208 1 5 cbr 1000 ------- 2 4.0 7.0 7 7
+ 0.208 5 7 cbr 1000 ------- 2 4.0 7.0 7 7
- 0.208 5 7 cbr 1000 ------- 2 4.0 7.0 7 7
r 0.208667 0 1 cbr 1000 ------- 2 4.0 7.0 9 9
+ 0.208667 1 5 cbr 1000 ------- 2 4.0 7.0 9 9
- 0.208667 1 5 cbr 1000 ------- 2 4.0 7.0 9 9
r 0.211333 4 0 cbr 1000 ------- 2 4.0 7.0 12 12
+ 0.211333 0 1 cbr 1000 ------- 2 4.0 7.0 12 12
- 0.211333 0 1 cbr 1000 ------- 2 4.0 7.0 12 12
+ 0.212 4 0 cbr 1000 ------- 2 4.0 7.0 14 14
- 0.212 4 0 cbr 1000 ------- 2 4.0 7.0 14 14
+ 0.212 4 0 cbr 1000 ------- 2 4.0 7.0 15 15
r 0.216667 4 0 cbr 1000 ------- 2 4.0 7.0 13 13
+ 0.216667 0 1 cbr 1000 ------- 2 4.0 7.0 13 13
- 0.216667 0 1 cbr 1000 ------- 2 4.0 7.0 13 13
- 0.217333 4 0 cbr 1000 ------- 2 4.0 7.0 15 15
r 0.218 5 7 cbr 1000 ------- 2 4.0 7.0 6 6
r 0.218667 1 5 cbr 1000 ------- 2 4.0 7.0 8 8
+ 0.218667 5 7 cbr 1000 ------- 2 4.0 7.0 8 8
- 0.218667 5 7 cbr 1000 ------- 2 4.0 7.0 8 8
r 0.219333 0 1 cbr 1000 ------- 2 4.0 7.0 10 10
+ 0.219333 1 5 cbr 1000 ------- 2 4.0 7.0 10 10
- 0.219333 1 5 cbr 1000 ------- 2 4.0 7.0 10 10
r 0.223333 5 7 cbr 1000 ------- 2 4.0 7.0 7 7
r 0.224 1 5 cbr 1000 ------- 2 4.0 7.0 9 9
+ 0.224 5 7 cbr 1000 ------- 2 4.0 7.0 9 9
- 0.224 5 7 cbr 1000 ------- 2 4.0 7.0 9 9
r 0.224667 0 1 cbr 1000 ------- 2 4.0 7.0 11 11
+ 0.224667 1 5 cbr 1000 ------- 2 4.0 7.0 11 11
- 0.224667 1 5 cbr 1000 ------- 2 4.0 7.0 11 11
r 0.227333 4 0 cbr 1000 ------- 2 4.0 7.0 14 14
+ 0.227333 0 1 cbr 1000 ------- 2 4.0 7.0 14 14
- 0.227333 0 1 cbr 1000 ------- 2 4.0 7.0 14 14
+ 0.228 4 0 cbr 1000 ------- 2 4.0 7.0 16 16
- 0.228 4 0 cbr 1000 ------- 2 4.0 7.0 16 16
+ 0.228 4 0 cbr 1000 ------- 2 4.0 7.0 17 17
r 0.232667 4 0 cbr 1000 ------- 2 4.0 7.0 15 15
+ 0.232667 0 1 cbr 1000 ------- 2 4.0 7.0 15 15
- 0.232667 0 1 cbr 1000 ------- 2 4.0 7.0 15 15
- 0.233333 4 0 cbr 1000 ------- 2 4.0 7.0 17 17
r 0.234 5 7 cbr 1000 ------- 2 4.0 7.0 8 8
r 0.234667 1 5 cbr 1000 ------- 2 4.0 7.0 10 10
+ 0.234667 5 7 cbr 1000 ------- 2 4.0 7.0 10 10
- 0.234667 5 7 cbr 1000 ------- 2 4.0 7.0 10 10
r 0.235333 0 1 cbr 1000 ------- 2 4.0 7.0 12 12
+ 0.235333 1 5 cbr 1000 ------- 2 4.0 7.0 12 12
- 0.235333 1 5 cbr 1000 ------- 2 4.0 7.0 12 12
r 0.239333 5 7 cbr 1000 ------- 2 4.0 7.0 9 9
r 0.24 1 5 cbr 1000 ------- 2 4.0 7.0 11 11
+ 0.24 5 7 cbr 1000 ------- 2 4.0 7.0 11 11
- 0.24 5 7 cbr 1000 ------- 2 4.0 7.0 11 11
r 0.240667 0 1 cbr 1000 ------- 2 4.0 7.0 13 13
+ 0.240667 1 5 cbr 1000 ------- 2 4.0 7.0 13 13
- 0.240667 1 5 cbr 1000 ------- 2 4.0 7.0 13 13
r 0.243333 4 0 cbr 1000 ------- 2 4.0 7.0 16 16
+ 0.243333 0 1 cbr 1000 ------- 2 4.0 7.0 16 16
- 0.243333 0 1 cbr 1000 ------- 2 4.0 7.0 16 16
+ 0.244 4 0 cbr 1000 ------- 2 4.0 7.0 18 18
- 0.244 4 0 cbr 1000 ------- 2 4.0 7.0 18 18
+ 0.244 4 0 cbr 1000 ------- 2 4.0 7.0 19 19
r 0.248667 4 0 cbr 1000 ------- 2 4.0 7.0 17 17
+ 0.248667 0 1 cbr 1000 ------- 2 4.0 7.0 17 17
- 0.248667 0 1 cbr 1000 ------- 2 4.0 7.0 17 17
- 0.249333 4 0 cbr 1000 ------- 2 4.0 7.0 19 19
r 0.25 5 7 cbr 1000 ------- 2 4.0 7.0 10 10
r 0.250667 1 5 cbr 1000 ------- 2 4.0 7.0 12 12
+ 0.250667 5 7 cbr 1000 ------- 2 4.0 7.0 12 12
- 0.250667 5 7 cbr 1000 ------- 2 4.0 7.0 12 12
r 0.251333 0 1 cbr 1000 ------- 2 4.0 7.0 14 14
+ 0.251333 1 5 cbr 1000 ------- 2 4.0 7.0 14 14
- 0.251333 1 5 cbr 1000 ------- 2 4.0 7.0 14 14
r 0.255333 5 7 cbr 1000 ------- 2 4.0 7.0 11 11
r 0.256 1 5 cbr 1000 ------- 2 4.0 7.0 13 13
+ 0.256 5 7 cbr 1000 ------- 2 4.0 7.0 13 13
- 0.256 5 7 cbr 1000 ------- 2 4.0 7.0 13 13
r 0.256667 0 1 cbr 1000 ------- 2 4.0 7.0 15 15
+ 0.256667 1 5 cbr 1000 ------- 2 4.0 7.0 15 15
- 0.256667 1 5 cbr 1000 ------- 2 4.0 7.0 15 15
r 0.259333 4 0 cbr 1000 ------- 2 4.0 7.0 18 18
+ 0.259333 0 1 cbr 1000 ------- 2 4.0 7.0 18 18
- 0.259333 0 1 cbr 1000 ------- 2 4.0 7.0 18 18
+ 0.26 4 0 cbr 1000 ------- 2 4.0 7.0 20 20
- 0.26 4 0 cbr 1000 ------- 2 4.0 7.0 20 20
+ 0.26 4 0 cbr 1000 ------- 2 4.0 7.0 21 21
r 0.264667 4 0 cbr 1000 ------- 2 4.0 7.0 19 19
+ 0.264667 0 1 cbr 1000 ------- 2 4.0 7.0 19 19
- 0.264667 0 1 cbr 1000 ------- 2 4.0 7.0 19 19
- 0.265333 4 0 cbr 1000 ------- 2 4.0 7.0 21 21
r 0.266 5 7 cbr 1000 ------- 2 4.0 7.0 12 12
r 0.266667 1 5 cbr 1000 ------- 2 4.0 7.0 14 14
+ 0.266667 5 7 cbr 1000 ------- 2 4.0 7.0 14 14
- 0.266667 5 7 cbr 1000 ------- 2 4.0 7.0 14 14
r 0.267333 0 1 cbr 1000 ------- 2 4.0 7.0 16 16
+ 0.267333 1 5 cbr 1000 ------- 2 4.0 7.0 16 16
- 0.267333 1 5 cbr 1000 ------- 2 4.0 7.0 16 16
r 0.271333 5 7 cbr 1000 ------- 2 4.0 7.0 13 13
r 0.272 1 5 cbr 1000 ------- 2 4.0 7.0 15 15
+ 0.272 5 7 cbr 1000 ------- 2 4.0 7.0 15 15
- 0.272 5 7 cbr 1000 ------- 2 4.0 7.0 15 15
r 0.272667 0 1 cbr 1000 ------- 2 4.0 7.0 17 17
+ 0.272667 1 5 cbr 1000 ------- 2 4.0 7.0 17 17
- 0.272667 1 5 cbr 1000 ------- 2 4.0 7.0 17 17
r 0.275333 4 0 cbr 1000 ------- 2 4.0 7.0 20 20
+ 0.275333 0 1 cbr 1000 ------- 2 4.0 7.0 20 20
- 0.275333 0 1 cbr 1000 ------- 2 4.0 7.0 20 20
+ 0.276 4 0 cbr 1000 ------- 2 4.0 7.0 22 22
- 0.276 4 0 cbr 1000 ------- 2 4.0 7.0 22 22
+ 0.276 4 0 cbr 1000 ------- 2 4.0 7.0 23 23
r 0.280667 4 0 cbr 1000 ------- 2 4.0 7.0 21 21
+ 0.280667 0 1 cbr 1000 ------- 2 4.0 7.0 21 21
- 0.280667 0 1 cbr 1000 ------- 2 4.0 7.0 21 21
- 0.281333 4 0 cbr 1000 ------- 2 4.0 7.0 23 23
r 0.282 5 7 cbr 1000 ------- 2 4.0 7.0 14 14
r 0.282667 1 5 cbr 1000 ------- 2 4.0 7.0 16 16
+ 0.282667 5 7 cbr 1000 ------- 2 4.0 7.0 16 16
- 0.282667 5 7 cbr 1000 ------- 2 4.0 7.0 16 16
r 0.283333 0 1 cbr 1000 ------- 2 4.0 7.0 18 18
+ 0.283333 1 5 cbr 1000 ------- 2 4.0 7.0 18 18
- 0.283333 1 5 cbr 1000 ------- 2 4.0 7.0 18 18
r 0.287333 5 7 cbr 1000 ------- 2 4.0 7.0 15 15
r 0.288 1 5 cbr 1000 ------- 2 4.0 7.0 17 17
+ 0.288 5 7 cbr 1000 ------- 2 4.0 7.0 17 17
- 0.288 5 7 cbr 1000 ------- 2 4.0 7.0 17 17
r 0.288667 0 1 cbr 1000 ------- 2 4.0 7.0 19 19
+ 0.288667 1 5 cbr 1000 ------- 2 4.0 7.0 19 19
- 0.288667 1 5 cbr 1000 ------- 2 4.0 7.0 19 19
r 0.291333 4 0 cbr 1000 ------- 2 4.0 7.0 22 22
+ 0.291333 0 1 cbr 1000 ------- 2 4.0 7.0 22 22
- 0.291333 0 1 cbr 1000 ------- 2 4.0 7.0 22 22
+ 0.292 4 0 cbr 1000 ------- 2 4.0 7.0 24 24
- 0.292 4 0 cbr 1000 ------- 2 4.0 7.0 24 24
+ 0.292 4 0 cbr 1000 ------- 2 4.0 7.0 25 25
r 0.296667 4 0 cbr 1000 ------- 2 4.0 7.0 23 23
+ 0.296667 0 1 cbr 1000 ------- 2 4.0 7.0 23 23
- 0.296667 0 1 cbr 1000 ------- 2 4.0 7.0 23 23
- 0.297333 4 0 cbr 1000 ------- 2 4.0 7.0 25 25
r 0.298 5 7 cbr 1000 ------- 2 4.0 7.0 16 16
r 0.298667 1 5 cbr 1000 ------- 2 4.0 7.0 18 18
+ 0.298667 5 7 cbr 1000 ------- 2 4.0 7.0 18 18
- 0.298667 5 7 cbr 1000 ------- 2 4.0 7.0 18 18
r 0.299333 0 1 cbr 1000 ------- 2 4.0 7.0 20 20
+ 0.299333 1 5 cbr 1000 ------- 2 4.0 7.0 20 20
- 0.299333 1 5 cbr 1000 ------- 2 4.0 7.0 20 20
r 0.303333 5 7 cbr 1000 ------- 2 4.0 7.0 17 17
r 0.304 1 5 cbr 1000 ------- 2 4.0 7.0 19 19
+ 0.304 5 7 cbr 1000 ------- 2 4.0 7.0 19 19
- 0.304 5 7 cbr 1000 ------- 2 4.0 7.0 19 19
r 0.304667 0 1 cbr 1000 ------- 2 4.0 7.0 21 21
+ 0.304667 1 5 cbr 1000 ------- 2 4.0 7.0 21 21
- 0.304667 1 5 cbr 1000 ------- 2 4.0 7.0 21 21
r 0.307333 4 0 cbr 1000 ------- 2 4.0 7.0 24 24
+ 0.307333 0 1 cbr 1000 ------- 2 4.0 7.0 24 24
- 0.307333 0 1 cbr 1000 ------- 2 4.0 7.0 24 24
+ 0.308 4 0 cbr 1000 ------- 2 4.0 7.0 26 26
- 0.308 4 0 cbr 1000 ------- 2 4.0 7.0 26 26
+ 0.308 4 0 cbr 1000 ------- 2 4.0 7.0 27 27
r 0.312667 4 0 cbr 1000 ------- 2 4.0 7.0 25 25
+ 0.312667 0 1 cbr 1000 ------- 2 4.0 7.0 25 25
- 0.312667 0 1 cbr 1000 ------- 2 4.0 7.0 25 25
- 0.313333 4 0 cbr 1000 ------- 2 4.0 7.0 27 27
r 0.314 5 7 cbr 1000 ------- 2 4.0 7.0 18 18
r 0.314667 1 5 cbr 1000 ------- 2 4.0 7.0 20 20
+ 0.314667 5 7 cbr 1000 ------- 2 4.0 7.0 20 20
- 0.314667 5 7 cbr 1000 ------- 2 4.0 7.0 20 20
r 0.315333 0 1 cbr 1000 ------- 2 4.0 7.0 22 22
+ 0.315333 1 5 cbr 1000 ------- 2 4.0 7.0 22 22
- 0.315333 1 5 cbr 1000 ------- 2 4.0 7.0 22 22
r 0.319333 5 7 cbr 1000 ------- 2 4.0 7.0 19 19
r 0.32 1 5 cbr 1000 ------- 2 4.0 7.0 21 21
+ 0.32 5 7 cbr 1000 ------- 2 4.0 7.0 21 21
- 0.32 5 7 cbr 1000 ------- 2 4.0 7.0 21 21
r 0.320667 0 1 cbr 1000 ------- 2 4.0 7.0 23 23
+ 0.320667 1 5 cbr 1000 ------- 2 4.0 7.0 23 23
- 0.320667 1 5 cbr 1000 ------- 2 4.0 7.0 23 23
r 0.323333 4 0 cbr 1000 ------- 2 4.0 7.0 26 26
+ 0.323333 0 1 cbr 1000 ------- 2 4.0 7.0 26 26
- 0.323333 0 1 cbr 1000 ------- 2 4.0 7.0 26 26
+ 0.324 4 0 cbr 1000 ------- 2 4.0 7.0 28 28
- 0.324 4 0 cbr 1000 ------- 2 4.0 7.0 28 28
+ 0.324 4 0 cbr 1000 ------- 2 4.0 7.0 29 29
r 0.328667 4 0 cbr 1000 ------- 2 4.0 7.0 27 27
+ 0.328667 0 1 cbr 1000 ------- 2 4.0 7.0 27 27
- 0.328667 0 1 cbr 1000 ------- 2 4.0 7.0 27 27
- 0.329333 4 0 cbr 1000 ------- 2 4.0 7.0 29 29
r 0.33 5 7 cbr 1000 ------- 2 4.0 7.0 20 20
r 0.330667 1 5 cbr 1000 ------- 2 4.0 7.0 22 22
+ 0.330667 5 7 cbr 1000 ------- 2 4.0 7.0 22 22
- 0.330667 5 7 cbr 1000 ------- 2 4.0 7.0 22 22
r 0.331333 0 1 cbr 1000 ------- 2 4.0 7.0 24 24
+ 0.331333 1 5 cbr 1000 ------- 2 4.0 7.0 24 24
- 0.331333 1 5 cbr 1000 ------- 2 4.0 7.0 24 24
r 0.335333 5 7 cbr 1000 ------- 2 4.0 7.0 21 21
r 0.336 1 5 cbr 1000 ------- 2 4.0 7.0 23 23
+ 0.336 5 7 cbr 1000 ------- 2 4.0 7.0 23 23
- 0.336 5 7 cbr 1000 ------- 2 4.0 7.0 23 23
r 0.336667 0 1 cbr 1000 ------- 2 4.0 7.0 25 25
+ 0.336667 1 5 cbr 1000 ------- 2 4.0 7.0 25 25
- 0.336667 1 5 cbr 1000 ------- 2 4.0 7.0 25 25
r 0.339333 4 0 cbr 1000 ------- 2 4.0 7.0 28 28
+ 0.339333 0 1 cbr 1000 ------- 2 4.0 7.0 28 28
- 0.339333 0 1 cbr 1000 ------- 2 4.0 7.0 28 28
+ 0.34 4 0 cbr 1000 ------- 2 4.0 7.0 30 30
- 0.34 4 0 cbr 1000 ------- 2 4.0 7.0 30 30
+ 0.34 4 0 cbr 1000 ------- 2 4.0 7.0 31 31
r 0.344667 4 0 cbr 1000 ------- 2 4.0 7.0 29 29
+ 0.344667 0 1 cbr 1000 ------- 2 4.0 7.0 29 29
- 0.344667 0 1 cbr 1000 ------- 2 4.0 7.0 29 29
- 0.345333 4 0 cbr 1000 ------- 2 4.0 7.0 31 31
r 0.346 5 7 cbr 1000 ------- 2 4.0 7.0 22 22
r 0.346667 1 5 cbr 1000 ------- 2 4.0 7.0 24 24
+ 0.346667 5 7 cbr 1000 ------- 2 4.0 7.0 24 24
- 0.346667 5 7 cbr 1000 ------- 2 4.0 7.0 24 24
r 0.347333 0 1 cbr 1000 ------- 2 4.0 7.0 26 26
+ 0.347333 1 5 cbr 1000 ------- 2 4.0 7.0 26 26
- 0.347333 1 5 cbr 1000 ------- 2 4.0 7.0 26 26
r 0.351333 5 7 cbr 1000 ------- 2 4.0 7.0 23 23
r 0.352 1 5 cbr 1000 ------- 2 4.0 7.0 25 25
+ 0.352 5 7 cbr 1000 ------- 2 4.0 7.0 25 25
- 0.352 5 7 cbr 1000 ------- 2 4.0 7.0 25 25
r 0.352667 0 1 cbr 1000 ------- 2 4.0 7.0 27 27
+ 0.352667 1 5 cbr 1000 ------- 2 4.0 7.0 27 27
- 0.352667 1 5 cbr 1000 ------- 2 4.0 7.0 27 27
r 0.355333 4 0 cbr 1000 ------- 2 4.0 7.0 30 30
+ 0.355333 0 1 cbr 1000 ------- 2 4.0 7.0 30 30
- 0.355333 0 1 cbr 1000 ------- 2 4.0 7.0 30 30
+ 0.356 4 0 cbr 1000 ------- 2 4.0 7.0 32 32
- 0.356 4 0 cbr 1000 ------- 2 4.0 7.0 32 32
+ 0.356 4 0 cbr 1000 ------- 2 4.0 7.0 33 33
r 0.360667 4 0 cbr 1000 ------- 2 4.0 7.0 31 31
+ 0.360667 0 1 cbr 1000 ------- 2 4.0 7.0 31 31
- 0.360667 0 1 cbr 1000 ------- 2 4.0 7.0 31 31
- 0.361333 4 0 cbr 1000 ------- 2 4.0 7.0 33 33
r 0.362 5 7 cbr 1000 ------- 2 4.0 7.0 24 24
r 0.362667 1 5 cbr 1000 ------- 2 4.0 7.0 26 26
+ 0.362667 5 7 cbr 1000 ------- 2 4.0 7.0 26 26
- 0.362667 5 7 cbr 1000 ------- 2 4.0 7.0 26 26
r 0.363333 0 1 cbr 1000 ------- 2 4.0 7.0 28 28
+ 0.363333 1 5 cbr 1000 ------- 2 4.0 7.0 28 28
- 0.363333 1 5 cbr 1000 ------- 2 4.0 7.0 28 28
r 0.367333 5 7 cbr 1000 ------- 2 4.0 7.0 25 25
r 0.368 1 5 cbr 1000 ------- 2 4.0 7.0 27 27
+ 0.368 5 7 cbr 1000 ------- 2 4.0 7.0 27 27
- 0.368 5 7 cbr 1000 ------- 2 4.0 7.0 27 27
r 0.368667 0 1 cbr 1000 ------- 2 4.0 7.0 29 29
+ 0.368667 1 5 cbr 1000 ------- 2 4.0 7.0 29 29
- 0.368667 1 5 cbr 1000 ------- 2 4.0 7.0 29 29
r 0.371333 4 0 cbr 1000 ------- 2 4.0 7.0 32 32
+ 0.371333 0 1 cbr 1000 ------- 2 4.0 7.0 32 32
- 0.371333 0 1 cbr 1000 ------- 2 4.0 7.0 32 32
+ 0.372 4 0 cbr 1000 ------- 2 4.0 7.0 34 34
- 0.372 4 0 cbr 1000 ------- 2 4.0 7.0 34 34
+ 0.372 4 0 cbr 1000 ------- 2 4.0 7.0 35 35
r 0.376667 4 0 cbr 1000 ------- 2 4.0 7.0 33 33
+ 0.376667 0 1 cbr 1000 ------- 2 4.0 7.0 33 33
- 0.376667 0 1 cbr 1000 ------- 2 4.0 7.0 33 33
- 0.377333 4 0 cbr 1000 ------- 2 4.0 7.0 35 35
r 0.378 5 7 cbr 1000 ------- 2 4.0 7.0 26 26
r 0.378667 1 5 cbr 1000 ------- 2 4.0 7.0 28 28
+ 0.378667 5 7 cbr 1000 ------- 2 4.0 7.0 28 28
- 0.378667 5 7 cbr 1000 ------- 2 4.0 7.0 28 28
r 0.379333 0 1 cbr 1000 ------- 2 4.0 7.0 30 30
+ 0.379333 1 5 cbr 1000 ------- 2 4.0 7.0 30 30
- 0.379333 1 5 cbr 1000 ------- 2 4.0 7.0 30 30
r 0.383333 5 7 cbr 1000 ------- 2 4.0 7.0 27 27
r 0.384 1 5 cbr 1000 ------- 2 4.0 7.0 29 29
+ 0.384 5 7 cbr 1000 ------- 2 4.0 7.0 29 29
- 0.384 5 7 cbr 1000 ------- 2 4.0 7.0 29 29
r 0.384667 0 1 cbr 1000 ------- 2 4.0 7.0 31 31
+ 0.384667 1 5 cbr 1000 ------- 2 4.0 7.0 31 31
- 0.384667 1 5 cbr 1000 ------- 2 4.0 7.0 31 31
r 0.387333 4 0 cbr 1000 ------- 2 4.0 7.0 34 34
+ 0.387333 0 1 cbr 1000 ------- 2 4.0 7.0 34 34
- 0.387333 0 1 cbr 1000 ------- 2 4.0 7.0 34 34
+ 0.388 4 0 cbr 1000 ------- 2 4.0 7.0 36 36
- 0.388 4 0 cbr 1000 ------- 2 4.0 7.0 36 36
+ 0.388 4 0 cbr 1000 ------- 2 4.0 7.0 37 37
r 0.392667 4 0 cbr 1000 ------- 2 4.0 7.0 35 35
+ 0.392667 0 1 cbr 1000 ------- 2 4.0 7.0 35 35
- 0.392667 0 1 cbr 1000 ------- 2 4.0 7.0 35 35
- 0.393333 4 0 cbr 1000 ------- 2 4.0 7.0 37 37
r 0.394 5 7 cbr 1000 ------- 2 4.0 7.0 28 28
r 0.394667 1 5 cbr 1000 ------- 2 4.0 7.0 30 30
+ 0.394667 5 7 cbr 1000 ------- 2 4.0 7.0 30 30
- 0.394667 5 7 cbr 1000 ------- 2 4.0 7.0 30 30
r 0.395333 0 1 cbr 1000 ------- 2 4.0 7.0 32 32
+ 0.395333 1 5 cbr 1000 ------- 2 4.0 7.0 32 32
- 0.395333 1 5 cbr 1000 ------- 2 4.0 7.0 32 32
r 0.399333 5 7 cbr 1000 ------- 2 4.0 7.0 29 29
r 0.4 1 5 cbr 1000 ------- 2 4.0 7.0 31 31
+ 0.4 5 7 cbr 1000 ------- 2 4.0 7.0 31 31
- 0.4 5 7 cbr 1000 ------- 2 4.0 7.0 31 31
r 0.400667 0 1 cbr 1000 ------- 2 4.0 7.0 33 33
+ 0.400667 1 5 cbr 1000 ------- 2 4.0 7.0 33 33
- 0.400667 1 5 cbr 1000 ------- 2 4.0 7.0 33 33
r 0.403333 4 0 cbr 1000 ------- 2 4.0 7.0 36 36
+ 0.403333 0 1 cbr 1000 ------- 2 4.0 7.0 36 36
- 0.403333 0 1 cbr 1000 ------- 2 4.0 7.0 36 36
+ 0.404 4 0 cbr 1000 ------- 2 4.0 7.0 38 38
- 0.404 4 0 cbr 1000 ------- 2 4.0 7.0 38 38
+ 0.404 4 0 cbr 1000 ------- 2 4.0 7.0 39 39
r 0.408667 4 0 cbr 1000 ------- 2 4.0 7.0 37 37
+ 0.408667 0 1 cbr 1000 ------- 2 4.0 7.0 37 37
- 0.408667 0 1 cbr 1000 ------- 2 4.0 7.0 37 37
- 0.409333 4 0 cbr 1000 ------- 2 4.0 7.0 39 39
r 0.41 5 7 cbr 1000 ------- 2 4.0 7.0 30 30
r 0.410667 1 5 cbr 1000 ------- 2 4.0 7.0 32 32
+ 0.410667 5 7 cbr 1000 ------- 2 4.0 7.0 32 32
- 0.410667 5 7 cbr 1000 ------- 2 4.0 7.0 32 32
r 0.411333 0 1 cbr 1000 ------- 2 4.0 7.0 34 34
+ 0.411333 1 5 cbr 1000 ------- 2 4.0 7.0 34 34
- 0.411333 1 5 cbr 1000 ------- 2 4.0 7.0 34 34
r 0.415333 5 7 cbr 1000 ------- 2 4.0 7.0 31 31
r 0.416 1 5 cbr 1000 ------- 2 4.0 7.0 33 33
+ 0.416 5 7 cbr 1000 ------- 2 4.0 7.0 33 33
- 0.416 5 7 cbr 1000 ------- 2 4.0 7.0 33 33
r 0.416667 0 1 cbr 1000 ------- 2 4.0 7.0 35 35
+ 0.416667 1 5 cbr 1000 ------- 2 4.0 7.0 35 35
- 0.416667 1 5 cbr 1000 ------- 2 4.0 7.0 35 35
r 0.419333 4 0 cbr 1000 ------- 2 4.0 7.0 38 38
+ 0.419333 0 1 cbr 1000 ------- 2 4.0 7.0 38 38
- 0.419333 0 1 cbr 1000 ------- 2 4.0 7.0 38 38
+ 0.42 4 0 cbr 1000 ------- 2 4.0 7.0 40 40
- 0.42 4 0 cbr 1000 ------- 2 4.0 7.0 40 40
+ 0.42 4 0 cbr 1000 ------- 2 4.0 7.0 41 41
r 0.424667 4 0 cbr 1000 ------- 2 4.0 7.0 39 39
+ 0.424667 0 1 cbr 1000 ------- 2 4.0 7.0 39 39
- 0.424667 0 1 cbr 1000 ------- 2 4.0 7.0 39 39
- 0.425333 4 0 cbr 1000 ------- 2 4.0 7.0 41 41
r 0.426 5 7 cbr 1000 ------- 2 4.0 7.0 32 32
r 0.426667 1 5 cbr 1000 ------- 2 4.0 7.0 34 34
+ 0.426667 5 7 cbr 1000 ------- 2 4.0 7.0 34 34
- 0.426667 5 7 cbr 1000 ------- 2 4.0 7.0 34 34
r 0.427333 0 1 cbr 1000 ------- 2 4.0 7.0 36 36
+ 0.427333 1 5 cbr 1000 ------- 2 4.0 7.0 36 36
- 0.427333 1 5 cbr 1000 ------- 2 4.0 7.0 36 36
r 0.431333 5 7 cbr 1000 ------- 2 4.0 7.0 33 33
r 0.432 1 5 cbr 1000 ------- 2 4.0 7.0 35 35
+ 0.432 5 7 cbr 1000 ------- 2 4.0 7.0 35 35
- 0.432 5 7 cbr 1000 ------- 2 4.0 7.0 35 35
r 0.432667 0 1 cbr 1000 ------- 2 4.0 7.0 37 37
+ 0.432667 1 5 cbr 1000 ------- 2 4.0 7.0 37 37
- 0.432667 1 5 cbr 1000 ------- 2 4.0 7.0 37 37
r 0.435333 4 0 cbr 1000 ------- 2 4.0 7.0 40 40
+ 0.435333 0 1 cbr 1000 ------- 2 4.0 7.0 40 40
- 0.435333 0 1 cbr 1000 ------- 2 4.0 7.0 40 40
+ 0.436 4 0 cbr 1000 ------- 2 4.0 7.0 42 42
- 0.436 4 0 cbr 1000 ------- 2 4.0 7.0 42 42
+ 0.436 4 0 cbr 1000 ------- 2 4.0 7.0 43 43
r 0.440667 4 0 cbr 1000 ------- 2 4.0 7.0 41 41
+ 0.440667 0 1 cbr 1000 ------- 2 4.0 7.0 41 41
- 0.440667 0 1 cbr 1000 ------- 2 4.0 7.0 41 41
- 0.441333 4 0 cbr 1000 ------- 2 4.0 7.0 43 43
r 0.442 5 7 cbr 1000 ------- 2 4.0 7.0 34 34
r 0.442667 1 5 cbr 1000 ------- 2 4.0 7.0 36 36
+ 0.442667 5 7 cbr 1000 ------- 2 4.0 7.0 36 36
- 0.442667 5 7 cbr 1000 ------- 2 4.0 7.0 36 36
r 0.443333 0 1 cbr 1000 ------- 2 4.0 7.0 38 38
+ 0.443333 1 5 cbr 1000 ------- 2 4.0 7.0 38 38
- 0.443333 1 5 cbr 1000 ------- 2 4.0 7.0 38 38
r 0.447333 5 7 cbr 1000 ------- 2 4.0 7.0 35 35
r 0.448 1 5 cbr 1000 ------- 2 4.0 7.0 37 37
+ 0.448 5 7 cbr 1000 ------- 2 4.0 7.0 37 37
- 0.448 5 7 cbr 1000 ------- 2 4.0 7.0 37 37
r 0.448667 0 1 cbr 1000 ------- 2 4.0 7.0 39 39
+ 0.448667 1 5 cbr 1000 ------- 2 4.0 7.0 39 39
- 0.448667 1 5 cbr 1000 ------- 2 4.0 7.0 39 39
r 0.451333 4 0 cbr 1000 ------- 2 4.0 7.0 42 42
+ 0.451333 0 1 cbr 1000 ------- 2 4.0 7.0 42 42
- 0.451333 0 1 cbr 1000 ------- 2 4.0 7.0 42 42
+ 0.452 4 0 cbr 1000 ------- 2 4.0 7.0 44 44
- 0.452 4 0 cbr 1000 ------- 2 4.0 7.0 44 44
+ 0.452 4 0 cbr 1000 ------- 2 4.0 7.0 45 45
r 0.456667 4 0 cbr 1000 ------- 2 4.0 7.0 43 43
+ 0.456667 0 1 cbr 1000 ------- 2 4.0 7.0 43 43
- 0.456667 0 1 cbr 1000 ------- 2 4.0 7.0 43 43
- 0.457333 4 0 cbr 1000 ------- 2 4.0 7.0 45 45
r 0.458 5 7 cbr 1000 ------- 2 4.0 7.0 36 36
r 0.458667 1 5 cbr 1000 ------- 2 4.0 7.0 38 38
+ 0.458667 5 7 cbr 1000 ------- 2 4.0 7.0 38 38
- 0.458667 5 7 cbr 1000 ------- 2 4.0 7.0 38 38
r 0.459333 0 1 cbr 1000 ------- 2 4.0 7.0 40 40
+ 0.459333 1 5 cbr 1000 ------- 2 4.0 7.0 40 40
- 0.459333 1 5 cbr 1000 ------- 2 4.0 7.0 40 40
r 0.463333 5 7 cbr 1000 ------- 2 4.0 7.0 37 37
r 0.464 1 5 cbr 1000 ------- 2 4.0 7.0 39 39
+ 0.464 5 7 cbr 1000 ------- 2 4.0 7.0 39 39
- 0.464 5 7 cbr 1000 ------- 2 4.0 7.0 39 39
r 0.464667 0 1 cbr 1000 ------- 2 4.0 7.0 41 41
+ 0.464667 1 5 cbr 1000 ------- 2 4.0 7.0 41 41
- 0.464667 1 5 cbr 1000 ------- 2 4.0 7.0 41 41
r 0.467333 4 0 cbr 1000 ------- 2 4.0 7.0 44 44
+ 0.467333 0 1 cbr 1000 ------- 2 4.0 7.0 44 44
- 0.467333 0 1 cbr 1000 ------- 2 4.0 7.0 44 44
+ 0.468 4 0 cbr 1000 ------- 2 4.0 7.0 46 46
- 0.468 4 0 cbr 1000 ------- 2 4.0 7.0 46 46
+ 0.468 4 0 cbr 1000 ------- 2 4.0 7.0 47 47
r 0.472667 4 0 cbr 1000 ------- 2 4.0 7.0 45 45
+ 0.472667 0 1 cbr 1000 ------- 2 4.0 7.0 45 45
- 0.472667 0 1 cbr 1000 ------- 2 4.0 7.0 45 45
- 0.473333 4 0 cbr 1000 ------- 2 4.0 7.0 47 47
r 0.474 5 7 cbr 1000 ------- 2 4.0 7.0 38 38
r 0.474667 1 5 cbr 1000 ------- 2 4.0 7.0 40 40
+ 0.474667 5 7 cbr 1000 ------- 2 4.0 7.0 40 40
- 0.474667 5 7 cbr 1000 ------- 2 4.0 7.0 40 40
r 0.475333 0 1 cbr 1000 ------- 2 4.0 7.0 42 42
+ 0.475333 1 5 cbr 1000 ------- 2 4.0 7.0 42 42
- 0.475333 1 5 cbr 1000 ------- 2 4.0 7.0 42 42
r 0.479333 5 7 cbr 1000 ------- 2 4.0 7.0 39 39
r 0.48 1 5 cbr 1000 ------- 2 4.0 7.0 41 41
+ 0.48 5 7 cbr 1000 ------- 2 4.0 7.0 41 41
- 0.48 5 7 cbr 1000 ------- 2 4.0 7.0 41 41
r 0.480667 0 1 cbr 1000 ------- 2 4.0 7.0 43 43
+ 0.480667 1 5 cbr 1000 ------- 2 4.0 7.0 43 43
- 0.480667 1 5 cbr 1000 ------- 2 4.0 7.0 43 43
r 0.483333 4 0 cbr 1000 ------- 2 4.0 7.0 46 46
+ 0.483333 0 1 cbr 1000 ------- 2 4.0 7.0 46 46
- 0.483333 0 1 cbr 1000 ------- 2 4.0 7.0 46 46
+ 0.484 4 0 cbr 1000 ------- 2 4.0 7.0 48 48
- 0.484 4 0 cbr 1000 ------- 2 4.0 7.0 48 48
+ 0.484 4 0 cbr 1000 ------- 2 4.0 7.0 49 49
r 0.488667 4 0 cbr 1000 ------- 2 4.0 7.0 47 47
+ 0.488667 0 1 cbr 1000 ------- 2 4.0 7.0 47 47
- 0.488667 0 1 cbr 1000 ------- 2 4.0 7.0 47 47
- 0.489333 4 0 cbr 1000 ------- 2 4.0 7.0 49 49
r 0.49 5 7 cbr 1000 ------- 2 4.0 7.0 40 40
r 0.490667 1 5 cbr 1000 ------- 2 4.0 7.0 42 42
+ 0.490667 5 7 cbr 1000 ------- 2 4.0 7.0 42 42
- 0.490667 5 7 cbr 1000 ------- 2 4.0 7.0 42 42
r 0.491333 0 1 cbr 1000 ------- 2 4.0 7.0 44 44
+ 0.491333 1 5 cbr 1000 ------- 2 4.0 7.0 44 44
- 0.491333 1 5 cbr 1000 ------- 2 4.0 7.0 44 44
r 0.495333 5 7 cbr 1000 ------- 2 4.0 7.0 41 41
r 0.496 1 5 cbr 1000 ------- 2 4.0 7.0 43 43
+ 0.496 5 7 cbr 1000 ------- 2 4.0 7.0 43 43
- 0.496 5 7 cbr 1000 ------- 2 4.0 7.0 43 43
r 0.496667 0 1 cbr 1000 ------- 2 4.0 7.0 45 45
+ 0.496667 1 5 cbr 1000 ------- 2 4.0 7.0 45 45
- 0.496667 1 5 cbr 1000 ------- 2 4.0 7.0 45 45
r 0.499333 4 0 cbr 1000 ------- 2 4.0 7.0 48 48
+ 0.499333 0 1 cbr 1000 ------- 2 4.0 7.0 48 48
- 0.499333 0 1 cbr 1000 ------- 2 4.0 7.0 48 48
+ 0.5 4 0 cbr 1000 ------- 2 4.0 7.0 50 50
- 0.5 4 0 cbr 1000 ------- 2 4.0 7.0 50 50
+ 0.5 4 0 cbr 1000 ------- 2 4.0 7.0 51 51
r 0.504667 4 0 cbr 1000 ------- 2 4.0 7.0 49 49
+ 0.504667 0 1 cbr 1000 ------- 2 4.0 7.0 49 49
- 0.504667 0 1 cbr 1000 ------- 2 4.0 7.0 49 49
- 0.505333 4 0 cbr 1000 ------- 2 4.0 7.0 51 51
r 0.506 5 7 cbr 1000 ------- 2 4.0 7.0 42 42
r 0.506667 1 5 cbr 1000 ------- 2 4.0 7.0 44 44
+ 0.506667 5 7 cbr 1000 ------- 2 4.0 7.0 44 44
- 0.506667 5 7 cbr 1000 ------- 2 4.0 7.0 44 44
r 0.507333 0 1 cbr 1000 ------- 2 4.0 7.0 46 46
+ 0.507333 1 5 cbr 1000 ------- 2 4.0 7.0 46 46
- 0.507333 1 5 cbr 1000 ------- 2 4.0 7.0 46 46
r 0.511333 5 7 cbr 1000 ------- 2 4.0 7.0 43 43
r 0.512 1 5 cbr 1000 ------- 2 4.0 7.0 45 45
+ 0.512 5 7 cbr 1000 ------- 2 4.0 7.0 45 45
- 0.512 5 7 cbr 1000 ------- 2 4.0 7.0 45 45
r 0.512667 0 1 cbr 1000 ------- 2 4.0 7.0 47 47
+ 0.512667 1 5 cbr 1000 ------- 2 4.0 7.0 47 47
- 0.512667 1 5 cbr 1000 ------- 2 4.0 7.0 47 47
r 0.515333 4 0 cbr 1000 ------- 2 4.0 7.0 50 50
+ 0.515333 0 1 cbr 1000 ------- 2 4.0 7.0 50 50
- 0.515333 0 1 cbr 1000 ------- 2 4.0 7.0 50 50
+ 0.516 4 0 cbr 1000 ------- 2 4.0 7.0 52 52
- 0.516 4 0 cbr 1000 ------- 2 4.0 7.0 52 52
+ 0.516 4 0 cbr 1000 ------- 2 4.0 7.0 53 53
r 0.520667 4 0 cbr 1000 ------- 2 4.0 7.0 51 51
+ 0.520667 0 1 cbr 1000 ------- 2 4.0 7.0 51 51
- 0.520667 0 1 cbr 1000 ------- 2 4.0 7.0 51 51
- 0.521333 4 0 cbr 1000 ------- 2 4.0 7.0 53 53
r 0.522 5 7 cbr 1000 ------- 2 4.0 7.0 44 44
r 0.522667 1 5 cbr 1000 ------- 2 4.0 7.0 46 46
+ 0.522667 5 7 cbr 1000 ------- 2 4.0 7.0 46 46
- 0.522667 5 7 cbr 1000 ------- 2 4.0 7.0 46 46
r 0.523333 0 1 cbr 1000 ------- 2 4.0 7.0 48 48
+ 0.523333 1 5 cbr 1000 ------- 2 4.0 7.0 48 48
- 0.523333 1 5 cbr 1000 ------- 2 4.0 7.0 48 48
r 0.527333 5 7 cbr 1000 ------- 2 4.0 7.0 45 45
r 0.528 1 5 cbr 1000 ------- 2 4.0 7.0 47 47
+ 0.528 5 7 cbr 1000 ------- 2 4.0 7.0 47 47
- 0.528 5 7 cbr 1000 ------- 2 4.0 7.0 47 47
r 0.528667 0 1 cbr 1000 ------- 2 4.0 7.0 49 49
+ 0.528667 1 5 cbr 1000 ------- 2 4.0 7.0 49 49
- 0.528667 1 5 cbr 1000 ------- 2 4.0 7.0 49 49
r 0.531333 4 0 cbr 1000 ------- 2 4.0 7.0 52 52
+ 0.531333 0 1 cbr 1000 ------- 2 4.0 7.0 52 52
- 0.531333 0 1 cbr 1000 ------- 2 4.0 7.0 52 52
+ 0.532 4 0 cbr 1000 ------- 2 4.0 7.0 54 54
- 0.532 4 0 cbr 1000 ------- 2 4.0 7.0 54 54
+ 0.532 4 0 cbr 1000 ------- 2 4.0 7.0 55 55
r 0.536667 4 0 cbr 1000 ------- 2 4.0 7.0 53 53
+ 0.536667 0 1 cbr 1000 ------- 2 4.0 7.0 53 53
- 0.536667 0 1 cbr 1000 ------- 2 4.0 7.0 53 53
- 0.537333 4 0 cbr 1000 ------- 2 4.0 7.0 55 55
r 0.538 5 7 cbr 1000 ------- 2 4.0 7.0 46 46
r 0.538667 1 5 cbr 1000 ------- 2 4.0 7.0 48 48
+ 0.538667 5 7 cbr 1000 ------- 2 4.0 7.0 48 48
- 0.538667 5 7 cbr 1000 ------- 2 4.0 7.0 48 48
r 0.539333 0 1 cbr 1000 ------- 2 4.0 7.0 50 50
+ 0.539333 1 5 cbr 1000 ------- 2 4.0 7.0 50 50
- 0.539333 1 5 cbr 1000 ------- 2 4.0 7.0 50 50
r 0.543333 5 7 cbr 1000 ------- 2 4.0 7.0 47 47
r 0.544 1 5 cbr 1000 ------- 2 4.0 7.0 49 49
+ 0.544 5 7 cbr 1000 ------- 2 4.0 7.0 49 49
- 0.544 5 7 cbr 1000 ------- 2 4.0 7.0 49 49
r 0.544667 0 1 cbr 1000 ------- 2 4.0 7.0 51 51
+ 0.544667 1 5 cbr 1000 ------- 2 4.0 7.0 51 51
- 0.544667 1 5 cbr 1000 ------- 2 4.0 7.0 51 51
r 0.547333 4 0 cbr 1000 ------- 2 4.0 7.0 54 54
+ 0.547333 0 1 cbr 1000 ------- 2 4.0 7.0 54 54
- 0.547333 0 1 cbr 1000 ------- 2 4.0 7.0 54 54
+ 0.548 4 0 cbr 1000 ------- 2 4.0 7.0 56 56
- 0.548 4 0 cbr 1000 ------- 2 4.0 7.0 56 56
+ 0.548 4 0 cbr 1000 ------- 2 4.0 7.0 57 57
r 0.552667 4 0 cbr 1000 ------- 2 4.0 7.0 55 55
+ 0.552667 0 1 cbr 1000 ------- 2 4.0 7.0 55 55
- 0.552667 0 1 cbr 1000 ------- 2 4.0 7.0 55 55
- 0.553333 4 0 cbr 1000 ------- 2 4.0 7.0 57 57
r 0.554 5 7 cbr 1000 ------- 2 4.0 7.0 48 48
r 0.554667 1 5 cbr 1000 ------- 2 4.0 7.0 50 50
+ 0.554667 5 7 cbr 1000 ------- 2 4.0 7.0 50 50
- 0.554667 5 7 cbr 1000 ------- 2 4.0 7.0 50 50